% Model:              Solenoid_RF_Array8.mph
% Version:            COMSOL 6.1.0.357
% Date:               Jan 4 2024, 14:49
% Table:              Table 1 {tbl1} - Global Matrix Evaluation 1 {gmev1}
% freq (MHz)         500                                
% S-parameter (1)                                                                                                                                                                                                                                                                                                                                               
                                           0.9780437499487302+0.20016861457784021i           -6.85672865604742E-4+0.003063206300420541i        -1.6859897506552154E-4+6.140786221099375E-4i      -8.879106271503886E-5+2.846122745072114E-4i       -7.316200699751825E-5+2.2419531135613204E-4i      -8.882864037377833E-5+2.85119209862902E-4i        -1.6934603742641013E-4+6.133563357125207E-4i      -6.860235455658619E-4+0.003068025931081188i
                                                  -6.854829483315705E-4+0.0030636013134411905i      0.9780322765714988+0.20022515294773324i           -6.854975527949539E-4+0.003067620863911473i       -1.6853807810907593E-4+6.145357098385687E-4i      -8.880168203657615E-5+2.849468090815975E-4i       -7.309023106725842E-5+2.2449287774884213E-4i      -8.876745510673958E-5+2.857348521853716E-4i       -1.6884544567734636E-4+6.12864372269734E-4i
                                                  -1.6862725311421491E-4+6.137804441022678E-4i      -6.855244703774178E-4+0.003067387933890327i       0.9780200165431434+0.2003038896001419i            -6.857113552998028E-4+0.003070192881594362i       -1.687841668059632E-4+6.137695944031109E-4i       -8.885575712298775E-5+2.8515788476739153E-4i      -7.308582326073242E-5+2.2509667734886467E-4i      -8.874195226433985E-5+2.854012541807622E-4i
                                                  -8.882460895873647E-5+2.845980927678364E-4i       -1.6858336585106874E-4+6.142120506606368E-4i      -6.857348638966108E-4+0.0030699693473341667i      0.9780332866863424+0.20023113256997532i           -6.857617941452298E-4+0.0030638151293632377i      -1.6870605208228523E-4+6.134718224504854E-4i      -8.888856004173706E-5+2.8541662185943486E-4i      -7.306113171780174E-5+2.2541928913446678E-4i
                                                  -7.315235968965634E-5+2.2423939896232565E-4i      -8.913297354541637E-5+2.888203660536502E-4i       -1.6870615001317573E-4+6.133140855989832E-4i      -6.857409538330125E-4+0.0030638656020751777i      0.9780238573895521+0.2002736260929218i            -6.860219335071366E-4+0.003065300739950714i       -1.6878402511636515E-4+6.15513530239403E-4i       -8.846020908005423E-5+2.8310607539247366E-4i
                                                  -8.88746566896321E-5+2.8553076355114656E-4i       -7.307375352628675E-5+2.2435518411774574E-4i      -8.879350069259883E-5+2.854166050415026E-4i       -1.686738737530955E-4+6.13497763949884E-4i        -6.858688458148752E-4+0.0030650621836357255i      0.9780269269058328+0.20025386773740134i           -6.862238524276176E-4+0.003074681701516446i       -1.68852628721961E-4+6.16877035155771E-4i
                                                  -1.6873638159427138E-4+6.159963476186223E-4i      -8.881520617134507E-5+2.8534174193172357E-4i      -7.310787779944837E-5+2.251262819811491E-4i       -8.881841259194266E-5+2.854765316283713E-4i       -1.688391686241151E-4+6.155510498134806E-4i       -6.862417763486304E-4+0.0030746382309588213i      0.9780276290917609+0.2003376118631573i            -6.858433536999337E-4+0.0030737702429558408i
                                                  -6.861473694226623E-4+0.0030677798869819077i      -1.686824248968591E-4+6.135016689707197E-4i       -8.888798789594993E-5+2.8486470371674434E-4i      -7.305626689112868E-5+2.246884542120415E-4i       -8.85463514309478E-5+2.8681756605402383E-4i       -1.6888217925027882E-4+6.173679382908796E-4i      -6.858300413103821E-4+0.0030738218053041597i      0.9780329426485084+0.20025162356179832i
