% Model:              Solenoid_RF_Array4.mph
% Version:            COMSOL 6.1.0.357
% Date:               Jan 4 2024, 14:48
% Table:              Table 11 {tbl11} - Global Matrix Evaluation 1 {gmev1}
% freq (MHz)      500     
%  S-parameter (1)                                                                                                                                       
                                          0.9780377984106403+0.2006753404639642i            -2.3959872757889532E-4+9.844954786163158E-4i      -1.0361781104422288E-4+3.6931102444343744E-4i     -2.3949494415750726E-4+9.86761563382576E-4i
                                                  -2.3948663626726283E-4+9.845174702277986E-4i      0.9780327535077118+0.20070991276915673i           -2.4018274698360702E-4+9.868507521836887E-4i      -1.0598147076278432E-4+3.6586656149159086E-4i
                                                  -1.0403556027546081E-4+3.698310667176804E-4i      -2.4039306798083614E-4+9.861262848246237E-4i      0.9780242047894756+0.2007229834685203i            -2.4013686594547012E-4+9.856679042407836E-4i
                                                  -2.4047706686120134E-4+9.860563674463727E-4i      -1.0460210858047515E-4+3.703435185552324E-4i      -2.3923238033074504E-4+9.870916028240364E-4i      0.9780177999480777+0.20081846431121853i
