% Model:              Solenoid_RF_Array16.mph
% Version:            COMSOL 6.1.0.357
% Date:               Jan 4 2024, 14:51
% Table:              Table 1 {tbl1} - Global Matrix Evaluation 1 {gmev1}
% freq (MHz)       500 
% S-parameter (1)                                                                                                                                                                                                                                                                                                                                                                                                                                                                                                                                                                                                                                                                                                                                                               
                                              0.9780362361699164+0.20051531108145437i           -6.575018993366967E-4+0.0029468905734538883i      -1.3951334552005817E-4+5.004413009019558E-4i      -5.7301793177233155E-5+1.700937128766166E-4i      -3.0399595459156922E-5+8.369253592292264E-5i      -1.9957508313321453E-5+4.830700870399289E-5i      -1.5123889746437462E-5+3.458983995805921E-5i      -1.3268508132265005E-5+2.818216700125247E-5i      -1.213628140979354E-5+2.638484626420133E-5i       -1.2830616981541064E-5+2.866740500561118E-5i      -1.5037697431223928E-5+3.4570901694178006E-5i     -2.003166335429557E-5+4.8440505926674514E-5i      -3.084429248906391E-5+8.145621715044101E-5i       -5.532574569512861E-5+1.6914767200695992E-4i      -1.3946141998211632E-4+5.019165735104561E-4i      -6.577537960979744E-4+0.0029472963465832233i
                                                  -6.578476732015372E-4+0.002945459190620354i       0.9780452573561993+0.20043295230075348i           -6.573629598011934E-4+0.002952047801608029i       -1.391197741386399E-4+5.061726100509214E-4i       -5.619729099397768E-5+1.7201910350506623E-4i      -2.981889815009372E-5+8.132589780193596E-5i       -2.0066985882684037E-5+4.847967285913433E-5i      -1.5027855928558607E-5+3.522101045483666E-5i      -1.3035707235777442E-5+2.7111299409376593E-5i     -1.2750690599659205E-5+2.6302980945513173E-5i     -1.2802855467238742E-5+2.8468135148293523E-5i     -1.4758217352241167E-5+3.334294895966904E-5i      -1.9914317791385823E-5+4.839938703707334E-5i      -3.051753918169433E-5+8.01165118605651E-5i        -5.537487417844866E-5+1.6802421684865895E-4i      -1.3968167483595308E-4+4.998349885844666E-4i
                                                  -1.3943454923366204E-4+5.005917990297326E-4i      -6.566099161532385E-4+0.0029596930869300424i      0.9780411044431843+0.20050793040222206i           -6.560315045580648E-4+0.0029611461546213327i      -1.3851932290229215E-4+5.071572203297356E-4i      -5.596657924813209E-5+1.7237648017956922E-4i      -3.0327292157443284E-5+7.946646107061364E-5i      -1.9874594973149412E-5+4.796155314788236E-5i      -1.5126526413807842E-5+3.4357999655733574E-5i     -1.3017695836808769E-5+2.7981912644418004E-5i     -1.2148072658615964E-5+2.670287037674341E-5i      -1.2774472079007074E-5+2.8632922024847083E-5i     -1.5163102731250598E-5+3.4935034488709974E-5i     -2.0000597079171707E-5+4.834499234481958E-5i      -2.9055110381830435E-5+7.845250678237193E-5i      -5.6391969740133764E-5+1.6859667729496612E-4i
                                                  -5.634451709129185E-5+1.7062646133306108E-4i      -1.3925684041852862E-4+5.044455096592029E-4i      -6.560771377009996E-4+0.0029607075774507265i      0.9780373742139512+0.20057144527362641i           -6.561562243518294E-4+0.002964621249481668i       -1.3868904439109695E-4+5.092457397760926E-4i      -5.647971963670248E-5+1.719778839717327E-4i       -3.0372472550323165E-5+8.036368893578729E-5i      -1.9934999739816606E-5+4.809189237232596E-5i      -1.4980246384928004E-5+3.3865517954666484E-5i     -1.2782757651187737E-5+2.8545076426749507E-5i     -1.2038271994441041E-5+2.6970746308951515E-5i     -1.2730033855497878E-5+2.863709030870474E-5i      -1.5001347666053657E-5+3.4699714127129495E-5i     -1.9274374420808487E-5+4.5374497990853134E-5i     -3.086560131962736E-5+8.173614298674146E-5i
                                                  -3.0481468453051993E-5+8.074205876767564E-5i      -5.616047975176145E-5+1.7153857689913092E-4i      -1.3875825997046427E-4+5.084538404443879E-4i      -6.549836871501385E-4+0.002964790470837866i       0.9780311847465728+0.2006190057692564i            -6.562108743010762E-4+0.002964537629673925i       -1.3899359093127452E-4+5.076075356449365E-4i      -5.613908805493924E-5+1.7116749682029672E-4i      -2.955826180695763E-5+8.208646762100632E-5i       -1.9417551936562078E-5+4.503323944672454E-5i      -1.5191183158192832E-5+3.5604800887519464E-5i     -1.2740266916396993E-5+2.8701227640703608E-5i     -1.209311720843319E-5+2.691677435037076E-5i       -1.2777612678699044E-5+2.8827265270231125E-5i     -1.4568296268624305E-5+3.3159845622011554E-5i     -1.991039147894023E-5+4.8265368439592474E-5i
                                                  -1.9713689870093816E-5+5.1151976532478E-5i        -3.0450586541848997E-5+8.197722691217685E-5i      -5.623029084290653E-5+1.7345499991231524E-4i      -1.3867437104506073E-4+5.093786058420313E-4i      -6.561974773169571E-4+0.0029649910221975725i      0.978034340413046+0.20052744632228442i            -6.563138262873541E-4+0.002958959357414354i       -1.3906011574914517E-4+5.033756593783218E-4i      -5.837205505738103E-5+1.796834327282919E-4i       -3.103995898686665E-5+8.063880397145443E-5i       -1.98613435626471E-5+4.808329919800493E-5i        -1.4725127030657788E-5+3.4306771556297605E-5i     -1.2776603234150151E-5+2.84631542909076E-5i       -1.3150109120800723E-5+2.339340433447031E-5i      -1.2809780004201789E-5+2.8589286212624053E-5i     -1.5387020113203522E-5+3.2172237983406524E-5i
                                                  -1.4033851015413608E-5+3.134896667613188E-5i      -1.988276330670116E-5+4.836758886141665E-5i       -3.0330827488643216E-5+8.126777247891782E-5i      -5.692480369133331E-5+1.7344154942515043E-4i      -1.3894184202312384E-4+5.073690043633248E-4i      -6.563604281689262E-4+0.0029591062878109972i      0.9780390127111092+0.20053613384252392i           -6.574661157081294E-4+0.002949340890187326i       -1.3968209148370117E-4+5.004789984192406E-4i      -5.6226217443885394E-5+1.690667887365592E-4i      -3.0490103493609107E-5+8.009474861386652E-5i      -2.073184806409895E-5+4.8408453731167196E-5i      -1.5032179772591129E-5+3.458728760618058E-5i      -1.2685440128227695E-5+2.8608799761360342E-5i     -1.1901335274805625E-5+2.6028426206740777E-5i     -1.2781232729257076E-5+2.8283641797544807E-5i
                                                  -1.2715581451839614E-5+2.784544723292545E-5i      -1.5108137261199282E-5+3.374745984178337E-5i      -1.9924903299320333E-5+4.8348155312193375E-5i     -3.0181764405465437E-5+8.079898785233873E-5i      -5.616826847779033E-5+1.7091547125909872E-4i      -1.3967407879218814E-4+5.048740526591526E-4i      -6.573265867334999E-4+0.002949939805354451i       0.9780342060505509+0.2005653582754434i            -6.572295041492873E-4+0.00294555782679496i        -1.3903703020469994E-4+4.961833667029285E-4i      -5.630211998479719E-5+1.689506805645775E-4i       -3.132945923908627E-5+8.078879003799513E-5i       -1.9945717423829453E-5+4.838088239215465E-5i      -1.71413410025261E-5+3.503445337226444E-5i        -1.264562772553038E-5+2.859650196671338E-5i       -1.2227772163193738E-5+2.6377700478168662E-5i
                                                  -1.3092469106119702E-5+2.9809337932273705E-5i     -1.3930629328299768E-5+3.0847543743593755E-5i     -1.4904433767223737E-5+3.429678210341745E-5i      -1.987690584614555E-5+4.8513403435912994E-5i      -3.01595449486963E-5+7.824163135311444E-5i        -5.665025683321275E-5+1.7008944902275242E-4i      -1.395983886066771E-4+4.996863936855463E-4i       -6.576588844667937E-4+0.0029467077406402117i      0.97804057953834+0.20049067002981094i             -6.575398026596104E-4+0.0029470330304864046i      -1.3942269638707774E-4+5.015275919709445E-4i      -5.633934091563241E-5+1.713418429322677E-4i       -3.043594694367534E-5+8.217953409331129E-5i       -1.925060075240253E-5+4.9364022557962914E-5i      -1.5218646742536992E-5+3.436928481450926E-5i      -1.272563271522415E-5+2.828533112352178E-5i
                                                  -1.273477135556741E-5+2.8269238516258427E-5i      -1.1491742099288352E-5+2.627552191698162E-5i      -1.284056136721334E-5+2.830802635729622E-5i       -1.502383774320575E-5+3.4352198124130145E-5i      -1.993678897927554E-5+4.820876652632889E-5i       -3.0487991611469177E-5+7.992521341186539E-5i      -5.62728466175494E-5+1.6875461968648517E-4i       -1.3952331521670594E-4+4.998868151865838E-4i      -6.57503733538218E-4+0.0029470790533894153i       0.9780395738238536+0.20051828138074376i           -6.565965341775077E-4+0.002952733202808699i       -1.3908373719279422E-4+5.077648558619884E-4i      -5.5860245025528896E-5+1.7298173383939534E-4i     -3.0460361964654748E-5+8.210899431728746E-5i      -2.028717061463135E-5+4.8335861013970805E-5i      -1.6484145322043814E-5+3.385055535461237E-5i
                                                  -1.5864216005301698E-5+3.408517607349198E-5i      -1.2576993301885972E-5+2.8469772531643505E-5i     -1.1835932144786566E-5+2.603187175310795E-5i      -1.2769409756766243E-5+2.844514032070061E-5i      -1.5138269548597013E-5+3.489210561869258E-5i      -1.9772627707641182E-5+4.935118723250575E-5i      -3.0359864835519034E-5+8.07764128951902E-5i       -5.711786926489244E-5+1.6767164567694712E-4i      -1.3891145713953792E-4+5.018357453989511E-4i      -6.588903203648454E-4+0.0029519618378587827i      0.9780431758675308+0.20043361094542672i           -6.553120180311115E-4+0.0029686086248464213i      -1.389975332517038E-4+5.115856172308802E-4i       -5.623185745162297E-5+1.7423745000641973E-4i      -3.02082888724825E-5+8.278086740469133E-5i        -2.0865605150925438E-5+4.8301584400745106E-5i
                                                  -1.8559099953549567E-5+4.752383520050428E-5i      -1.6807009198377432E-5+4.1717096259115405E-5i     -1.381220973229331E-5+3.212510162473652E-5i       -1.1930900821620308E-5+2.7074581762711198E-5i     -1.1905981427535708E-5+2.5821685472517082E-5i     -1.4281191733434955E-5+3.357862329523124E-5i      -1.942424692327672E-5+4.481925809686457E-5i       -2.9480280945044324E-5+7.771145801262913E-5i      -5.204527331100892E-5+1.7581086575406762E-4i      -1.3733153011915355E-4+5.093678386326732E-4i      -6.548546001453993E-4+0.0029641332727922743i      0.9780460626804723+0.2005218508152631i            -6.556009580937214E-4+0.002968097816951619i       -1.376453633937352E-4+5.113593002544706E-4i       -5.5360744902922926E-5+1.7649177463133418E-4i     -3.0427721163933673E-5+8.132677659167453E-5i
                                                  -3.0131416105427465E-5+8.197510054614757E-5i      -1.985717746554088E-5+4.816735279223618E-5i       -1.490785744689836E-5+3.436945451812738E-5i       -1.2864197913672424E-5+2.8923625555311768E-5i     -1.2120693044474612E-5+2.7135715800248508E-5i     -1.2783265833856219E-5+2.871457303848125E-5i      -1.5026800653365233E-5+3.460053168921832E-5i      -1.9975314881875187E-5+4.872299518175844E-5i      -3.066886486919987E-5+8.279312167466521E-5i       -5.60719728486503E-5+1.7295561560607507E-4i       -1.384916452487241E-4+5.123681231227208E-4i       -6.558302313561418E-4+0.0029673464947415204i      0.9780438151177029+0.20056559850357503i           -6.55807035742409E-4+0.0029649071648153572i       -1.3874071107690286E-4+5.104346169871147E-4i      -5.615098031235029E-5+1.7247319664286462E-4i
                                                  -5.627013024080346E-5+1.7045876512826623E-4i      -3.0485272447840164E-5+8.056852031292175E-5i      -2.1454158596264646E-5+4.9899845858041126E-5i     -1.499364581256938E-5+3.49521953210768E-5i        -1.2412857449044839E-5+2.8418233454904054E-5i     -1.2369434364650108E-5+2.6028074970102455E-5i     -1.3280615392570519E-5+3.2590687560092E-5i        -1.515861189417124E-5+3.390417665145179E-5i       -2.0256865156559075E-5+4.944739670274492E-5i      -2.9346132401207602E-5+8.293523033279192E-5i      -5.590695786196321E-5+1.7441440396816964E-4i      -1.391223237113884E-4+5.116040070314868E-4i       -6.553557700572251E-4+0.002966881430266785i       0.9780307879594852+0.20058002330626268i           -6.570344697306698E-4+0.0029733052821347286i      -1.3901180953455267E-4+5.06403545291831E-4i
                                                  -1.3957769751998098E-4+5.012016005360637E-4i      -5.638870604525223E-5+1.6876793622707875E-4i      -3.0479666654527738E-5+8.000009246934396E-5i      -1.9934830311216947E-5+4.8217303908986426E-5i     -1.5040933752869962E-5+3.4533907711399104E-5i     -1.2762672728846378E-5+2.8586980245958298E-5i     -1.2053220115804647E-5+2.6573473688420914E-5i     -1.2587584856046761E-5+2.8267997737701176E-5i     -1.5366828921509573E-5+3.44847095959703E-5i       -1.997850228561428E-5+4.8984441871082E-5i         -3.035197082410025E-5+8.269994434112216E-5i       -5.599544781968101E-5+1.7397435058913023E-4i      -1.3666426342410983E-4+5.149668404823273E-4i      -6.551544198793605E-4+0.0029662132504067393i      0.9780341032096396+0.2005892425735268i            -6.57417945595754E-4+0.002953515481225434i
                                                  -6.575385788174455E-4+0.002945603067664326i       -1.3934662802700157E-4+4.999022136266355E-4i      -5.5239479587035386E-5+1.709754090414532E-4i      -2.996335440996817E-5+8.049940043748492E-5i       -1.9142082849024076E-5+4.923268444853974E-5i      -1.5555046372988433E-5+3.4160709355153635E-5i     -1.0901742359982036E-5+1.8297905712313296E-5i     -1.2146039115854963E-5+2.6655324115870886E-5i     -1.2810633470403861E-5+2.8354159143799308E-5i     -1.5023097463722214E-5+3.452689482843076E-5i      -1.9904086153879218E-5+4.891770915735613E-5i      -2.8805237186819924E-5+8.340306214958622E-5i      -5.625959007461729E-5+1.725593010248492E-4i       -1.3912411864320574E-4+5.066545837262401E-4i      -6.569590006102047E-4+0.002953401681166469i       0.9780358630142154+0.20053076136221482i
